Title: // Generated for: SymSpice
Date: 13:12:15 06/03/25
Plotname: S-Parameter Analysis `sweep-000_sp': freq = (1.0 Hz -> 2.e+10Hz)
Flags: complex
No. Variables: 1
No. Points: 0       
Variables:
		0	freq	Hz
Values:
