Title: // Generated for: SymSpice
Date: 15:02:13 06/30/25
Plotname: S-Parameter Analysis `sweep-000_SPSweep': freq = (1.e+08Hz -> 7.e+10Hz)
Flags: complex
No. Variables: 1
No. Points: 0       
Variables:
		0	freq	Hz
Values:
